# vtk DataFile Version 2.0
bixa1_mesh, Created by Gmsh
ASCII
DATASET UNSTRUCTURED_GRID
POINTS 63 double
-0.5 -0.5 1
-0.5 -0.5 0
-0.5 0.5 1
-0.5 0.5 0
0.5 -0.5 1
0.5 -0.5 0
0.5 0.5 1
0.5 0.5 0
-0.5 -0.5 0.4999999999999999
-0.5 -5.551115123125783e-17 1
-0.5 0.5 0.4999999999999999
-0.5 -5.551115123125783e-17 0
0.5 -0.5 0.4999999999999999
0.5 -5.551115123125783e-17 1
0.5 0.5 0.4999999999999999
0.5 -5.551115123125783e-17 0
-5.551115123125783e-17 -0.5 0
-5.551115123125783e-17 -0.5 1
-5.551115123125783e-17 0.5 0
-5.551115123125783e-17 0.5 1
-0.5 0 0.5
-0.5 -0.25 0.75
-0.5 -0.25 0.25
-0.5 0.25 0.75
-0.5 0.25 0.25
0.5 0 0.5
0.5 -0.25 0.25
0.5 -0.25 0.75
0.5 0.25 0.75
0.5 0.25 0.25
0 -0.5 0.5
-0.25 -0.5 0.25
-0.25 -0.5 0.75
0.25 -0.5 0.75
0.25 -0.5 0.25
0 0.5 0.5
-0.25 0.5 0.75
-0.25 0.5 0.25
0.25 0.5 0.75
0.25 0.5 0.25
0 0 0
-0.25 0.25 0
-0.25 -0.25 0
0.25 -0.25 0
0.25 0.25 0
0 0 1
-0.25 -0.25 1
-0.25 0.25 1
0.25 -0.25 1
0.25 0.25 1
0 0.25 0.75
-0.25 0 0.75
-0.25 0.25 0.5
0.25 0.25 0.5
0 0 0.5
0.25 0 0.75
-0.25 -0.25 0.5
0 -0.25 0.75
0.25 -0.25 0.5
0.25 0 0.25
-0.25 0 0.25
0 -0.25 0.25
0 0.25 0.25

CELLS 47 421
6 1 0 20 8 21 22
6 0 2 20 9 23 21
6 3 1 20 11 22 24
6 2 3 20 10 24 23
6 5 25 4 26 27 12
6 4 25 6 27 28 13
6 7 25 5 29 26 15
6 6 25 7 28 29 14
6 0 1 30 8 31 32
6 4 0 30 17 32 33
6 1 5 30 16 34 31
6 5 4 30 12 33 34
6 2 35 3 36 37 10
6 6 35 2 38 36 19
6 3 35 7 37 39 18
6 7 35 6 39 38 14
6 1 3 40 11 41 42
6 5 1 40 16 42 43
6 3 7 40 18 44 41
6 7 5 40 15 43 44
6 0 45 2 46 47 9
6 4 45 0 48 46 17
6 2 45 6 47 49 19
6 6 45 4 49 48 13
10 30 20 45 25 56 51 57 58 54 55
10 25 30 20 40 58 56 54 59 61 60
10 25 20 35 40 54 52 53 59 60 62
10 20 0 1 30 21 8 22 56 32 31
10 6 25 35 7 28 53 38 14 29 39
10 0 45 4 30 46 48 17 32 57 33
10 2 45 0 20 47 46 9 23 51 21
10 4 30 25 5 33 58 27 12 34 26
10 3 35 2 20 37 36 10 24 52 23
10 35 2 45 6 36 47 50 38 19 49
10 45 4 25 6 48 27 55 49 13 28
10 7 35 3 40 39 37 18 44 62 41
10 20 1 3 40 22 11 24 60 42 41
10 40 30 1 5 61 31 42 43 34 16
10 40 7 25 5 44 29 59 43 15 26
10 45 2 35 20 47 36 50 51 23 52
10 45 0 20 30 46 21 51 57 32 56
10 45 4 30 25 48 33 57 55 27 58
10 30 1 20 40 31 22 56 61 42 60
10 7 25 35 40 29 53 39 44 59 62
10 3 35 20 40 37 52 24 41 62 60
10 40 25 30 5 59 58 61 43 26 34
10 35 45 25 6 50 55 53 38 49 28

CELL_TYPES 47
22
22
22
22
22
22
22
22
22
22
22
22
22
22
22
22
22
22
22
22
22
22
22
22
24
24
24
24
24
24
24
24
24
24
24
24
24
24
24
24
24
24
24
24
24
24
24

CELL_DATA 47
SCALARS CellEntityIds int 1
LOOKUP_TABLE default
2
2
2
2
2
2
2
2
2
2
2
2
2
2
2
2
2
2
2
2
2
2
2
2
1
1
1
1
1
1
1
1
1
1
1
1
1
1
1
1
1
1
1
1
1
1
1
